<?xml version="1.0" encoding="UTF-8"?>

<!-- generated on Friday 17 March 2017 11:47:18 PM IST by SUMO gui Version 0.25.0
<?xml version="1.0" encoding="UTF-8"?>

<configuration xmlns:xsi="http://www.w3.org/2001/XMLSchema-instance" xsi:noNamespaceSchemaLocation="http://sumo.dlr.de/xsd/sumo-gui.exeConfiguration.xsd">

    <input>
        <net-file value="/home/anoop/Desktop/anoop/Anoop/Downloads/Matrin%20LI/map.net.xml"/>
        <route-files value="/home/anoop/Desktop/anoop/Anoop/Downloads/Matrin%20LI/map.rou.xml"/>
        <additional-files value="/home/anoop/Desktop/anoop/Anoop/Downloads/Matrin%20LI/map.det.xml"/>
    </input>

    <output>
        <save-state.prefix value="/home/anoop/Desktop/anoop/Anoop/Downloads/Matrin%20LI/state"/>
    </output>

    <time>
        <begin value="0"/>
        <end value="2000"/>
    </time>

    <emissions>
        <phemlight-path value="/home/anoop/Desktop/anoop/Anoop/Downloads/Matrin%20LI/./PHEMlight/"/>
    </emissions>

</configuration>
-->

<detector xmlns:xsi="http://www.w3.org/2001/XMLSchema-instance" xsi:noNamespaceSchemaLocation="http://sumo.dlr.de/xsd/det_e1_file.xsd">
   <interval begin="0.00" end="30.00" id="1" nVehContrib="0" flow="0.00" occupancy="0.00" speed="-1.00" length="-1.00" nVehEntered="0"/>
   <interval begin="30.00" end="60.00" id="1" nVehContrib="0" flow="0.00" occupancy="0.00" speed="-1.00" length="-1.00" nVehEntered="0"/>
   <interval begin="60.00" end="90.00" id="1" nVehContrib="1" flow="120.00" occupancy="1.66" speed="10.05" length="5.00" nVehEntered="1"/>
   <interval begin="90.00" end="120.00" id="1" nVehContrib="1" flow="120.00" occupancy="1.50" speed="11.14" length="5.00" nVehEntered="1"/>
   <interval begin="120.00" end="150.00" id="1" nVehContrib="0" flow="0.00" occupancy="0.00" speed="-1.00" length="-1.00" nVehEntered="0"/>
   <interval begin="150.00" end="180.00" id="1" nVehContrib="0" flow="0.00" occupancy="0.00" speed="-1.00" length="-1.00" nVehEntered="0"/>
   <interval begin="180.00" end="210.00" id="1" nVehContrib="0" flow="0.00" occupancy="0.00" speed="-1.00" length="-1.00" nVehEntered="0"/>
   <interval begin="210.00" end="240.00" id="1" nVehContrib="1" flow="120.00" occupancy="1.78" speed="9.39" length="5.00" nVehEntered="1"/>
   <interval begin="240.00" end="270.00" id="1" nVehContrib="0" flow="0.00" occupancy="0.00" speed="-1.00" length="-1.00" nVehEntered="0"/>
   <interval begin="270.00" end="300.00" id="1" nVehContrib="0" flow="0.00" occupancy="0.00" speed="-1.00" length="-1.00" nVehEntered="0"/>
   <interval begin="300.00" end="330.00" id="1" nVehContrib="0" flow="0.00" occupancy="0.00" speed="-1.00" length="-1.00" nVehEntered="0"/>
   <interval begin="330.00" end="360.00" id="1" nVehContrib="1" flow="120.00" occupancy="1.81" speed="9.20" length="5.00" nVehEntered="1"/>
   <interval begin="360.00" end="390.00" id="1" nVehContrib="2" flow="240.00" occupancy="3.20" speed="10.44" length="5.00" nVehEntered="2"/>
   <interval begin="390.00" end="420.00" id="1" nVehContrib="0" flow="0.00" occupancy="0.00" speed="-1.00" length="-1.00" nVehEntered="0"/>
   <interval begin="420.00" end="450.00" id="1" nVehContrib="2" flow="240.00" occupancy="3.59" speed="9.31" length="5.00" nVehEntered="2"/>
   <interval begin="450.00" end="480.00" id="1" nVehContrib="0" flow="0.00" occupancy="0.00" speed="-1.00" length="-1.00" nVehEntered="0"/>
   <interval begin="480.00" end="510.00" id="1" nVehContrib="1" flow="120.00" occupancy="1.88" speed="8.88" length="5.00" nVehEntered="1"/>
   <interval begin="510.00" end="540.00" id="1" nVehContrib="0" flow="0.00" occupancy="0.00" speed="-1.00" length="-1.00" nVehEntered="0"/>
   <interval begin="540.00" end="570.00" id="1" nVehContrib="1" flow="120.00" occupancy="1.82" speed="9.14" length="5.00" nVehEntered="1"/>
   <interval begin="570.00" end="600.00" id="1" nVehContrib="0" flow="0.00" occupancy="0.00" speed="-1.00" length="-1.00" nVehEntered="0"/>
   <interval begin="600.00" end="630.00" id="1" nVehContrib="0" flow="0.00" occupancy="0.00" speed="-1.00" length="-1.00" nVehEntered="0"/>
   <interval begin="630.00" end="660.00" id="1" nVehContrib="1" flow="120.00" occupancy="1.52" speed="10.95" length="5.00" nVehEntered="1"/>
   <interval begin="660.00" end="690.00" id="1" nVehContrib="0" flow="0.00" occupancy="0.00" speed="-1.00" length="-1.00" nVehEntered="0"/>
   <interval begin="690.00" end="720.00" id="1" nVehContrib="2" flow="240.00" occupancy="3.22" speed="10.40" length="5.00" nVehEntered="2"/>
   <interval begin="720.00" end="750.00" id="1" nVehContrib="0" flow="0.00" occupancy="0.00" speed="-1.00" length="-1.00" nVehEntered="0"/>
   <interval begin="750.00" end="780.00" id="1" nVehContrib="2" flow="240.00" occupancy="3.40" speed="9.79" length="5.00" nVehEntered="2"/>
   <interval begin="780.00" end="810.00" id="1" nVehContrib="0" flow="0.00" occupancy="0.00" speed="-1.00" length="-1.00" nVehEntered="0"/>
   <interval begin="810.00" end="840.00" id="1" nVehContrib="1" flow="120.00" occupancy="1.65" speed="10.08" length="5.00" nVehEntered="1"/>
   <interval begin="840.00" end="870.00" id="1" nVehContrib="1" flow="120.00" occupancy="1.51" speed="11.00" length="5.00" nVehEntered="1"/>
   <interval begin="870.00" end="900.00" id="1" nVehContrib="1" flow="120.00" occupancy="1.81" speed="9.19" length="5.00" nVehEntered="1"/>
   <interval begin="900.00" end="930.00" id="1" nVehContrib="0" flow="0.00" occupancy="0.00" speed="-1.00" length="-1.00" nVehEntered="0"/>
   <interval begin="930.00" end="960.00" id="1" nVehContrib="0" flow="0.00" occupancy="0.00" speed="-1.00" length="-1.00" nVehEntered="0"/>
   <interval begin="960.00" end="990.00" id="1" nVehContrib="3" flow="360.00" occupancy="4.82" speed="10.44" length="5.00" nVehEntered="3"/>
   <interval begin="990.00" end="1020.00" id="1" nVehContrib="0" flow="0.00" occupancy="0.00" speed="-1.00" length="-1.00" nVehEntered="0"/>
   <interval begin="1020.00" end="1050.00" id="1" nVehContrib="3" flow="360.00" occupancy="5.24" speed="9.55" length="5.00" nVehEntered="3"/>
   <interval begin="1050.00" end="1080.00" id="1" nVehContrib="0" flow="0.00" occupancy="0.00" speed="-1.00" length="-1.00" nVehEntered="0"/>
   <interval begin="1080.00" end="1110.00" id="1" nVehContrib="1" flow="120.00" occupancy="1.73" speed="9.61" length="5.00" nVehEntered="1"/>
   <interval begin="1110.00" end="1140.00" id="1" nVehContrib="1" flow="120.00" occupancy="1.51" speed="11.02" length="5.00" nVehEntered="1"/>
   <interval begin="1140.00" end="1170.00" id="1" nVehContrib="0" flow="0.00" occupancy="0.00" speed="-1.00" length="-1.00" nVehEntered="0"/>
   <interval begin="1170.00" end="1200.00" id="1" nVehContrib="7" flow="840.00" occupancy="13.00" speed="9.45" length="5.00" nVehEntered="7"/>
   <interval begin="1200.00" end="1230.00" id="1" nVehContrib="0" flow="0.00" occupancy="0.00" speed="-1.00" length="-1.00" nVehEntered="0"/>
   <interval begin="1230.00" end="1260.00" id="1" nVehContrib="1" flow="120.00" occupancy="1.56" speed="10.68" length="5.00" nVehEntered="1"/>
   <interval begin="1260.00" end="1290.00" id="1" nVehContrib="0" flow="0.00" occupancy="0.00" speed="-1.00" length="-1.00" nVehEntered="0"/>
   <interval begin="1290.00" end="1320.00" id="1" nVehContrib="2" flow="240.00" occupancy="3.43" speed="9.83" length="5.00" nVehEntered="2"/>
   <interval begin="1320.00" end="1350.00" id="1" nVehContrib="0" flow="0.00" occupancy="0.00" speed="-1.00" length="-1.00" nVehEntered="0"/>
   <interval begin="1350.00" end="1380.00" id="1" nVehContrib="1" flow="120.00" occupancy="1.78" speed="9.35" length="5.00" nVehEntered="1"/>
   <interval begin="1380.00" end="1410.00" id="1" nVehContrib="0" flow="0.00" occupancy="0.00" speed="-1.00" length="-1.00" nVehEntered="0"/>
   <interval begin="1410.00" end="1440.00" id="1" nVehContrib="0" flow="0.00" occupancy="0.00" speed="-1.00" length="-1.00" nVehEntered="0"/>
   <interval begin="1440.00" end="1470.00" id="1" nVehContrib="2" flow="240.00" occupancy="3.33" speed="10.11" length="5.00" nVehEntered="2"/>
   <interval begin="1470.00" end="1500.00" id="1" nVehContrib="0" flow="0.00" occupancy="0.00" speed="-1.00" length="-1.00" nVehEntered="0"/>
   <interval begin="1500.00" end="1530.00" id="1" nVehContrib="5" flow="600.00" occupancy="8.30" speed="10.13" length="5.00" nVehEntered="5"/>
   <interval begin="1530.00" end="1560.00" id="1" nVehContrib="0" flow="0.00" occupancy="0.00" speed="-1.00" length="-1.00" nVehEntered="0"/>
   <interval begin="1560.00" end="1590.00" id="1" nVehContrib="0" flow="0.00" occupancy="0.00" speed="-1.00" length="-1.00" nVehEntered="0"/>
   <interval begin="1590.00" end="1620.00" id="1" nVehContrib="1" flow="120.00" occupancy="1.51" speed="11.02" length="5.00" nVehEntered="1"/>
   <interval begin="1620.00" end="1650.00" id="1" nVehContrib="1" flow="120.00" occupancy="1.96" speed="8.50" length="5.00" nVehEntered="1"/>
   <interval begin="1650.00" end="1680.00" id="1" nVehContrib="1" flow="120.00" occupancy="1.66" speed="10.03" length="5.00" nVehEntered="1"/>
   <interval begin="1680.00" end="1710.00" id="1" nVehContrib="0" flow="0.00" occupancy="0.00" speed="-1.00" length="-1.00" nVehEntered="0"/>
   <interval begin="1710.00" end="1740.00" id="1" nVehContrib="0" flow="0.00" occupancy="0.00" speed="-1.00" length="-1.00" nVehEntered="0"/>
   <interval begin="1740.00" end="1770.00" id="1" nVehContrib="0" flow="0.00" occupancy="0.00" speed="-1.00" length="-1.00" nVehEntered="0"/>
   <interval begin="1770.00" end="1800.00" id="1" nVehContrib="4" flow="480.00" occupancy="6.78" speed="9.91" length="5.00" nVehEntered="4"/>
   <interval begin="1800.00" end="1830.00" id="1" nVehContrib="1" flow="120.00" occupancy="1.54" speed="10.83" length="5.00" nVehEntered="1"/>
   <interval begin="1830.00" end="1860.00" id="1" nVehContrib="0" flow="0.00" occupancy="0.00" speed="-1.00" length="-1.00" nVehEntered="0"/>
   <interval begin="1860.00" end="1890.00" id="1" nVehContrib="0" flow="0.00" occupancy="0.00" speed="-1.00" length="-1.00" nVehEntered="0"/>
   <interval begin="1890.00" end="1920.00" id="1" nVehContrib="1" flow="120.00" occupancy="1.88" speed="8.87" length="5.00" nVehEntered="1"/>
   <interval begin="1920.00" end="1950.00" id="1" nVehContrib="3" flow="360.00" occupancy="4.86" speed="10.34" length="5.00" nVehEntered="3"/>
   <interval begin="1950.00" end="1980.00" id="1" nVehContrib="0" flow="0.00" occupancy="0.00" speed="-1.00" length="-1.00" nVehEntered="0"/>
   <interval begin="1980.00" end="2000.00" id="1" nVehContrib="1" flow="180.00" occupancy="2.62" speed="9.53" length="5.00" nVehEntered="1"/>
</detector>
